
FAST Summary File

Predictions were generated on 14-Dec-2018 at 21:48:58 using OpenFAST, compiled as a 64-bit application using single precision at commit v1.0.0
  compiled with
    NWTC Subroutine Library
    ElastoDyn
    BeamDyn [not called]
    InflowWind
    AeroDyn14 [not called]
    AeroDyn
    ServoDyn
    HydroDyn [not called]
    SubDyn [not called]
    ExtPtfm_MCKF [not called]
    MAP [not called]
    FEAMooring [not called]
    MoorDyn [not called]
    OrcaFlexInterface [not called]
    IceFloe [not called]
    IceDyn [not called]


Modeling a land-based turbine
Description from the FAST input file: 
  SNL SWiFT FAST Model Input File, version 2.0 Created on 10-May-2018

Interpolation order for input/output time histories: 2 (quadratic)
Number of correction iterations:  0


   Requested Time Steps  
  -------------------------------------------------
  Component          Time Step (s)    Subcycles (-)
  -----------------  ---------------  -------------
  FAST (glue code)    5.000E-03
  InflowWind          5.000E-03              1
  ElastoDyn           2.500E-03              2
  AeroDyn             5.000E-03              1
  ServoDyn            5.000E-03              1
  FAST output files   5.000E-03              1


   Requested Channels in FAST Output File(s)  
  --------------------------------------------
  Number  Name        Units       Generated by
  ------  ----------  ----------  ------------
       1  Time        (s)         OpenFAST
       2  Wind1VelX   (m/s)       InflowWind
       3  Wind1VelY   (m/s)       InflowWind
       4  Wind1VelZ   (m/s)       InflowWind
       5  RotSpeed    (rpm)       ElastoDyn
       6  BldPitch1   (deg)       ElastoDyn
       7  RtTSR       (-)         AeroDyn
       8  RtAeroCp    (-)         AeroDyn
       9  RtAeroCt    (-)         AeroDyn
      10  GenPwr      (kW)        ServoDyn
